+ 0 /NodeList/5/DeviceList/0/$ns3::PointToPointNetDevice/TxQueue/Enqueue ns3::PppHeader (Point-to-Point Protocol: IP (0x0021)) ns3::Ipv4Header (tos 0x0 DSCP Default ECN Not-ECT ttl 64 id 0 protocol 17 offset (bytes) 0 flags [none] length: 1052 10.1.5.2 > 10.1.1.1) ns3::UdpHeader (length: 1032 49153 > 9) Payload (size=1024)
- 0 /NodeList/5/DeviceList/0/$ns3::PointToPointNetDevice/TxQueue/Dequeue ns3::PppHeader (Point-to-Point Protocol: IP (0x0021)) ns3::Ipv4Header (tos 0x0 DSCP Default ECN Not-ECT ttl 64 id 0 protocol 17 offset (bytes) 0 flags [none] length: 1052 10.1.5.2 > 10.1.1.1) ns3::UdpHeader (length: 1032 49153 > 9) Payload (size=1024)
+ 0 /NodeList/9/DeviceList/0/$ns3::PointToPointNetDevice/TxQueue/Enqueue ns3::PppHeader (Point-to-Point Protocol: IP (0x0021)) ns3::Ipv4Header (tos 0x0 DSCP Default ECN Not-ECT ttl 64 id 0 protocol 17 offset (bytes) 0 flags [none] length: 1052 10.1.13.2 > 10.1.1.1) ns3::UdpHeader (length: 1032 49153 > 9) Payload (size=1024)
- 0 /NodeList/9/DeviceList/0/$ns3::PointToPointNetDevice/TxQueue/Dequeue ns3::PppHeader (Point-to-Point Protocol: IP (0x0021)) ns3::Ipv4Header (tos 0x0 DSCP Default ECN Not-ECT ttl 64 id 0 protocol 17 offset (bytes) 0 flags [none] length: 1052 10.1.13.2 > 10.1.1.1) ns3::UdpHeader (length: 1032 49153 > 9) Payload (size=1024)
r 0.021864 /NodeList/2/DeviceList/1/$ns3::PointToPointNetDevice/MacRx ns3::PppHeader (Point-to-Point Protocol: IP (0x0021)) ns3::Ipv4Header (tos 0x0 DSCP Default ECN Not-ECT ttl 64 id 0 protocol 17 offset (bytes) 0 flags [none] length: 1052 10.1.5.2 > 10.1.1.1) ns3::UdpHeader (length: 1032 49153 > 9) Payload (size=1024)
+ 0.021864 /NodeList/2/DeviceList/0/$ns3::PointToPointNetDevice/TxQueue/Enqueue ns3::PppHeader (Point-to-Point Protocol: IP (0x0021)) ns3::Ipv4Header (tos 0x0 DSCP Default ECN Not-ECT ttl 63 id 0 protocol 17 offset (bytes) 0 flags [none] length: 1052 10.1.5.2 > 10.1.1.1) ns3::UdpHeader (length: 1032 49153 > 9) Payload (size=1024)
- 0.021864 /NodeList/2/DeviceList/0/$ns3::PointToPointNetDevice/TxQueue/Dequeue ns3::PppHeader (Point-to-Point Protocol: IP (0x0021)) ns3::Ipv4Header (tos 0x0 DSCP Default ECN Not-ECT ttl 63 id 0 protocol 17 offset (bytes) 0 flags [none] length: 1052 10.1.5.2 > 10.1.1.1) ns3::UdpHeader (length: 1032 49153 > 9) Payload (size=1024)
r 0.021864 /NodeList/6/DeviceList/2/$ns3::PointToPointNetDevice/MacRx ns3::PppHeader (Point-to-Point Protocol: IP (0x0021)) ns3::Ipv4Header (tos 0x0 DSCP Default ECN Not-ECT ttl 64 id 0 protocol 17 offset (bytes) 0 flags [none] length: 1052 10.1.13.2 > 10.1.1.1) ns3::UdpHeader (length: 1032 49153 > 9) Payload (size=1024)
+ 0.021864 /NodeList/6/DeviceList/0/$ns3::PointToPointNetDevice/TxQueue/Enqueue ns3::PppHeader (Point-to-Point Protocol: IP (0x0021)) ns3::Ipv4Header (tos 0x0 DSCP Default ECN Not-ECT ttl 63 id 0 protocol 17 offset (bytes) 0 flags [none] length: 1052 10.1.13.2 > 10.1.1.1) ns3::UdpHeader (length: 1032 49153 > 9) Payload (size=1024)
- 0.021864 /NodeList/6/DeviceList/0/$ns3::PointToPointNetDevice/TxQueue/Dequeue ns3::PppHeader (Point-to-Point Protocol: IP (0x0021)) ns3::Ipv4Header (tos 0x0 DSCP Default ECN Not-ECT ttl 63 id 0 protocol 17 offset (bytes) 0 flags [none] length: 1052 10.1.13.2 > 10.1.1.1) ns3::UdpHeader (length: 1032 49153 > 9) Payload (size=1024)
r 0.043728 /NodeList/1/DeviceList/1/$ns3::PointToPointNetDevice/MacRx ns3::PppHeader (Point-to-Point Protocol: IP (0x0021)) ns3::Ipv4Header (tos 0x0 DSCP Default ECN Not-ECT ttl 63 id 0 protocol 17 offset (bytes) 0 flags [none] length: 1052 10.1.5.2 > 10.1.1.1) ns3::UdpHeader (length: 1032 49153 > 9) Payload (size=1024)
+ 0.043728 /NodeList/1/DeviceList/0/$ns3::PointToPointNetDevice/TxQueue/Enqueue ns3::PppHeader (Point-to-Point Protocol: IP (0x0021)) ns3::Ipv4Header (tos 0x0 DSCP Default ECN Not-ECT ttl 62 id 0 protocol 17 offset (bytes) 0 flags [none] length: 1052 10.1.5.2 > 10.1.1.1) ns3::UdpHeader (length: 1032 49153 > 9) Payload (size=1024)
- 0.043728 /NodeList/1/DeviceList/0/$ns3::PointToPointNetDevice/TxQueue/Dequeue ns3::PppHeader (Point-to-Point Protocol: IP (0x0021)) ns3::Ipv4Header (tos 0x0 DSCP Default ECN Not-ECT ttl 62 id 0 protocol 17 offset (bytes) 0 flags [none] length: 1052 10.1.5.2 > 10.1.1.1) ns3::UdpHeader (length: 1032 49153 > 9) Payload (size=1024)
r 0.043728 /NodeList/3/DeviceList/2/$ns3::PointToPointNetDevice/MacRx ns3::PppHeader (Point-to-Point Protocol: IP (0x0021)) ns3::Ipv4Header (tos 0x0 DSCP Default ECN Not-ECT ttl 63 id 0 protocol 17 offset (bytes) 0 flags [none] length: 1052 10.1.13.2 > 10.1.1.1) ns3::UdpHeader (length: 1032 49153 > 9) Payload (size=1024)
+ 0.043728 /NodeList/3/DeviceList/0/$ns3::PointToPointNetDevice/TxQueue/Enqueue ns3::PppHeader (Point-to-Point Protocol: IP (0x0021)) ns3::Ipv4Header (tos 0x0 DSCP Default ECN Not-ECT ttl 62 id 0 protocol 17 offset (bytes) 0 flags [none] length: 1052 10.1.13.2 > 10.1.1.1) ns3::UdpHeader (length: 1032 49153 > 9) Payload (size=1024)
- 0.043728 /NodeList/3/DeviceList/0/$ns3::PointToPointNetDevice/TxQueue/Dequeue ns3::PppHeader (Point-to-Point Protocol: IP (0x0021)) ns3::Ipv4Header (tos 0x0 DSCP Default ECN Not-ECT ttl 62 id 0 protocol 17 offset (bytes) 0 flags [none] length: 1052 10.1.13.2 > 10.1.1.1) ns3::UdpHeader (length: 1032 49153 > 9) Payload (size=1024)
r 0.065592 /NodeList/0/DeviceList/0/$ns3::PointToPointNetDevice/MacRx ns3::PppHeader (Point-to-Point Protocol: IP (0x0021)) ns3::Ipv4Header (tos 0x0 DSCP Default ECN Not-ECT ttl 62 id 0 protocol 17 offset (bytes) 0 flags [none] length: 1052 10.1.5.2 > 10.1.1.1) ns3::UdpHeader (length: 1032 49153 > 9) Payload (size=1024)
+ 0.065592 /NodeList/0/DeviceList/0/$ns3::PointToPointNetDevice/TxQueue/Enqueue ns3::PppHeader (Point-to-Point Protocol: IP (0x0021)) ns3::Ipv4Header (tos 0x0 DSCP Default ECN Not-ECT ttl 64 id 0 protocol 17 offset (bytes) 0 flags [none] length: 1052 10.1.1.1 > 10.1.5.2) ns3::UdpHeader (length: 1032 9 > 49153) Payload (size=1024)
- 0.065592 /NodeList/0/DeviceList/0/$ns3::PointToPointNetDevice/TxQueue/Dequeue ns3::PppHeader (Point-to-Point Protocol: IP (0x0021)) ns3::Ipv4Header (tos 0x0 DSCP Default ECN Not-ECT ttl 64 id 0 protocol 17 offset (bytes) 0 flags [none] length: 1052 10.1.1.1 > 10.1.5.2) ns3::UdpHeader (length: 1032 9 > 49153) Payload (size=1024)
r 0.065592 /NodeList/0/DeviceList/1/$ns3::PointToPointNetDevice/MacRx ns3::PppHeader (Point-to-Point Protocol: IP (0x0021)) ns3::Ipv4Header (tos 0x0 DSCP Default ECN Not-ECT ttl 62 id 0 protocol 17 offset (bytes) 0 flags [none] length: 1052 10.1.13.2 > 10.1.1.1) ns3::UdpHeader (length: 1032 49153 > 9) Payload (size=1024)
+ 0.065592 /NodeList/0/DeviceList/1/$ns3::PointToPointNetDevice/TxQueue/Enqueue ns3::PppHeader (Point-to-Point Protocol: IP (0x0021)) ns3::Ipv4Header (tos 0x0 DSCP Default ECN Not-ECT ttl 64 id 0 protocol 17 offset (bytes) 0 flags [none] length: 1052 10.1.3.1 > 10.1.13.2) ns3::UdpHeader (length: 1032 9 > 49153) Payload (size=1024)
- 0.065592 /NodeList/0/DeviceList/1/$ns3::PointToPointNetDevice/TxQueue/Dequeue ns3::PppHeader (Point-to-Point Protocol: IP (0x0021)) ns3::Ipv4Header (tos 0x0 DSCP Default ECN Not-ECT ttl 64 id 0 protocol 17 offset (bytes) 0 flags [none] length: 1052 10.1.3.1 > 10.1.13.2) ns3::UdpHeader (length: 1032 9 > 49153) Payload (size=1024)
r 0.087456 /NodeList/1/DeviceList/0/$ns3::PointToPointNetDevice/MacRx ns3::PppHeader (Point-to-Point Protocol: IP (0x0021)) ns3::Ipv4Header (tos 0x0 DSCP Default ECN Not-ECT ttl 64 id 0 protocol 17 offset (bytes) 0 flags [none] length: 1052 10.1.1.1 > 10.1.5.2) ns3::UdpHeader (length: 1032 9 > 49153) Payload (size=1024)
+ 0.087456 /NodeList/1/DeviceList/1/$ns3::PointToPointNetDevice/TxQueue/Enqueue ns3::PppHeader (Point-to-Point Protocol: IP (0x0021)) ns3::Ipv4Header (tos 0x0 DSCP Default ECN Not-ECT ttl 63 id 0 protocol 17 offset (bytes) 0 flags [none] length: 1052 10.1.1.1 > 10.1.5.2) ns3::UdpHeader (length: 1032 9 > 49153) Payload (size=1024)
- 0.087456 /NodeList/1/DeviceList/1/$ns3::PointToPointNetDevice/TxQueue/Dequeue ns3::PppHeader (Point-to-Point Protocol: IP (0x0021)) ns3::Ipv4Header (tos 0x0 DSCP Default ECN Not-ECT ttl 63 id 0 protocol 17 offset (bytes) 0 flags [none] length: 1052 10.1.1.1 > 10.1.5.2) ns3::UdpHeader (length: 1032 9 > 49153) Payload (size=1024)
r 0.087456 /NodeList/3/DeviceList/0/$ns3::PointToPointNetDevice/MacRx ns3::PppHeader (Point-to-Point Protocol: IP (0x0021)) ns3::Ipv4Header (tos 0x0 DSCP Default ECN Not-ECT ttl 64 id 0 protocol 17 offset (bytes) 0 flags [none] length: 1052 10.1.3.1 > 10.1.13.2) ns3::UdpHeader (length: 1032 9 > 49153) Payload (size=1024)
+ 0.087456 /NodeList/3/DeviceList/2/$ns3::PointToPointNetDevice/TxQueue/Enqueue ns3::PppHeader (Point-to-Point Protocol: IP (0x0021)) ns3::Ipv4Header (tos 0x0 DSCP Default ECN Not-ECT ttl 63 id 0 protocol 17 offset (bytes) 0 flags [none] length: 1052 10.1.3.1 > 10.1.13.2) ns3::UdpHeader (length: 1032 9 > 49153) Payload (size=1024)
- 0.087456 /NodeList/3/DeviceList/2/$ns3::PointToPointNetDevice/TxQueue/Dequeue ns3::PppHeader (Point-to-Point Protocol: IP (0x0021)) ns3::Ipv4Header (tos 0x0 DSCP Default ECN Not-ECT ttl 63 id 0 protocol 17 offset (bytes) 0 flags [none] length: 1052 10.1.3.1 > 10.1.13.2) ns3::UdpHeader (length: 1032 9 > 49153) Payload (size=1024)
+ 0.1 /NodeList/5/DeviceList/0/$ns3::PointToPointNetDevice/TxQueue/Enqueue ns3::PppHeader (Point-to-Point Protocol: IP (0x0021)) ns3::Ipv4Header (tos 0x0 DSCP Default ECN Not-ECT ttl 64 id 1 protocol 17 offset (bytes) 0 flags [none] length: 1052 10.1.5.2 > 10.1.1.1) ns3::UdpHeader (length: 1032 49153 > 9) Payload (size=1024)
- 0.1 /NodeList/5/DeviceList/0/$ns3::PointToPointNetDevice/TxQueue/Dequeue ns3::PppHeader (Point-to-Point Protocol: IP (0x0021)) ns3::Ipv4Header (tos 0x0 DSCP Default ECN Not-ECT ttl 64 id 1 protocol 17 offset (bytes) 0 flags [none] length: 1052 10.1.5.2 > 10.1.1.1) ns3::UdpHeader (length: 1032 49153 > 9) Payload (size=1024)
+ 0.1 /NodeList/9/DeviceList/0/$ns3::PointToPointNetDevice/TxQueue/Enqueue ns3::PppHeader (Point-to-Point Protocol: IP (0x0021)) ns3::Ipv4Header (tos 0x0 DSCP Default ECN Not-ECT ttl 64 id 1 protocol 17 offset (bytes) 0 flags [none] length: 1052 10.1.13.2 > 10.1.1.1) ns3::UdpHeader (length: 1032 49153 > 9) Payload (size=1024)
- 0.1 /NodeList/9/DeviceList/0/$ns3::PointToPointNetDevice/TxQueue/Dequeue ns3::PppHeader (Point-to-Point Protocol: IP (0x0021)) ns3::Ipv4Header (tos 0x0 DSCP Default ECN Not-ECT ttl 64 id 1 protocol 17 offset (bytes) 0 flags [none] length: 1052 10.1.13.2 > 10.1.1.1) ns3::UdpHeader (length: 1032 49153 > 9) Payload (size=1024)
r 0.10932 /NodeList/2/DeviceList/0/$ns3::PointToPointNetDevice/MacRx ns3::PppHeader (Point-to-Point Protocol: IP (0x0021)) ns3::Ipv4Header (tos 0x0 DSCP Default ECN Not-ECT ttl 63 id 0 protocol 17 offset (bytes) 0 flags [none] length: 1052 10.1.1.1 > 10.1.5.2) ns3::UdpHeader (length: 1032 9 > 49153) Payload (size=1024)
+ 0.10932 /NodeList/2/DeviceList/1/$ns3::PointToPointNetDevice/TxQueue/Enqueue ns3::PppHeader (Point-to-Point Protocol: IP (0x0021)) ns3::Ipv4Header (tos 0x0 DSCP Default ECN Not-ECT ttl 62 id 0 protocol 17 offset (bytes) 0 flags [none] length: 1052 10.1.1.1 > 10.1.5.2) ns3::UdpHeader (length: 1032 9 > 49153) Payload (size=1024)
- 0.10932 /NodeList/2/DeviceList/1/$ns3::PointToPointNetDevice/TxQueue/Dequeue ns3::PppHeader (Point-to-Point Protocol: IP (0x0021)) ns3::Ipv4Header (tos 0x0 DSCP Default ECN Not-ECT ttl 62 id 0 protocol 17 offset (bytes) 0 flags [none] length: 1052 10.1.1.1 > 10.1.5.2) ns3::UdpHeader (length: 1032 9 > 49153) Payload (size=1024)
r 0.10932 /NodeList/6/DeviceList/0/$ns3::PointToPointNetDevice/MacRx ns3::PppHeader (Point-to-Point Protocol: IP (0x0021)) ns3::Ipv4Header (tos 0x0 DSCP Default ECN Not-ECT ttl 63 id 0 protocol 17 offset (bytes) 0 flags [none] length: 1052 10.1.3.1 > 10.1.13.2) ns3::UdpHeader (length: 1032 9 > 49153) Payload (size=1024)
+ 0.10932 /NodeList/6/DeviceList/2/$ns3::PointToPointNetDevice/TxQueue/Enqueue ns3::PppHeader (Point-to-Point Protocol: IP (0x0021)) ns3::Ipv4Header (tos 0x0 DSCP Default ECN Not-ECT ttl 62 id 0 protocol 17 offset (bytes) 0 flags [none] length: 1052 10.1.3.1 > 10.1.13.2) ns3::UdpHeader (length: 1032 9 > 49153) Payload (size=1024)
- 0.10932 /NodeList/6/DeviceList/2/$ns3::PointToPointNetDevice/TxQueue/Dequeue ns3::PppHeader (Point-to-Point Protocol: IP (0x0021)) ns3::Ipv4Header (tos 0x0 DSCP Default ECN Not-ECT ttl 62 id 0 protocol 17 offset (bytes) 0 flags [none] length: 1052 10.1.3.1 > 10.1.13.2) ns3::UdpHeader (length: 1032 9 > 49153) Payload (size=1024)
r 0.121864 /NodeList/2/DeviceList/1/$ns3::PointToPointNetDevice/MacRx ns3::PppHeader (Point-to-Point Protocol: IP (0x0021)) ns3::Ipv4Header (tos 0x0 DSCP Default ECN Not-ECT ttl 64 id 1 protocol 17 offset (bytes) 0 flags [none] length: 1052 10.1.5.2 > 10.1.1.1) ns3::UdpHeader (length: 1032 49153 > 9) Payload (size=1024)
+ 0.121864 /NodeList/2/DeviceList/0/$ns3::PointToPointNetDevice/TxQueue/Enqueue ns3::PppHeader (Point-to-Point Protocol: IP (0x0021)) ns3::Ipv4Header (tos 0x0 DSCP Default ECN Not-ECT ttl 63 id 1 protocol 17 offset (bytes) 0 flags [none] length: 1052 10.1.5.2 > 10.1.1.1) ns3::UdpHeader (length: 1032 49153 > 9) Payload (size=1024)
- 0.121864 /NodeList/2/DeviceList/0/$ns3::PointToPointNetDevice/TxQueue/Dequeue ns3::PppHeader (Point-to-Point Protocol: IP (0x0021)) ns3::Ipv4Header (tos 0x0 DSCP Default ECN Not-ECT ttl 63 id 1 protocol 17 offset (bytes) 0 flags [none] length: 1052 10.1.5.2 > 10.1.1.1) ns3::UdpHeader (length: 1032 49153 > 9) Payload (size=1024)
r 0.121864 /NodeList/6/DeviceList/2/$ns3::PointToPointNetDevice/MacRx ns3::PppHeader (Point-to-Point Protocol: IP (0x0021)) ns3::Ipv4Header (tos 0x0 DSCP Default ECN Not-ECT ttl 64 id 1 protocol 17 offset (bytes) 0 flags [none] length: 1052 10.1.13.2 > 10.1.1.1) ns3::UdpHeader (length: 1032 49153 > 9) Payload (size=1024)
+ 0.121864 /NodeList/6/DeviceList/0/$ns3::PointToPointNetDevice/TxQueue/Enqueue ns3::PppHeader (Point-to-Point Protocol: IP (0x0021)) ns3::Ipv4Header (tos 0x0 DSCP Default ECN Not-ECT ttl 63 id 1 protocol 17 offset (bytes) 0 flags [none] length: 1052 10.1.13.2 > 10.1.1.1) ns3::UdpHeader (length: 1032 49153 > 9) Payload (size=1024)
- 0.121864 /NodeList/6/DeviceList/0/$ns3::PointToPointNetDevice/TxQueue/Dequeue ns3::PppHeader (Point-to-Point Protocol: IP (0x0021)) ns3::Ipv4Header (tos 0x0 DSCP Default ECN Not-ECT ttl 63 id 1 protocol 17 offset (bytes) 0 flags [none] length: 1052 10.1.13.2 > 10.1.1.1) ns3::UdpHeader (length: 1032 49153 > 9) Payload (size=1024)
r 0.131184 /NodeList/5/DeviceList/0/$ns3::PointToPointNetDevice/MacRx ns3::PppHeader (Point-to-Point Protocol: IP (0x0021)) ns3::Ipv4Header (tos 0x0 DSCP Default ECN Not-ECT ttl 62 id 0 protocol 17 offset (bytes) 0 flags [none] length: 1052 10.1.1.1 > 10.1.5.2) ns3::UdpHeader (length: 1032 9 > 49153) Payload (size=1024)
r 0.131184 /NodeList/9/DeviceList/0/$ns3::PointToPointNetDevice/MacRx ns3::PppHeader (Point-to-Point Protocol: IP (0x0021)) ns3::Ipv4Header (tos 0x0 DSCP Default ECN Not-ECT ttl 62 id 0 protocol 17 offset (bytes) 0 flags [none] length: 1052 10.1.3.1 > 10.1.13.2) ns3::UdpHeader (length: 1032 9 > 49153) Payload (size=1024)
r 0.143728 /NodeList/1/DeviceList/1/$ns3::PointToPointNetDevice/MacRx ns3::PppHeader (Point-to-Point Protocol: IP (0x0021)) ns3::Ipv4Header (tos 0x0 DSCP Default ECN Not-ECT ttl 63 id 1 protocol 17 offset (bytes) 0 flags [none] length: 1052 10.1.5.2 > 10.1.1.1) ns3::UdpHeader (length: 1032 49153 > 9) Payload (size=1024)
+ 0.143728 /NodeList/1/DeviceList/0/$ns3::PointToPointNetDevice/TxQueue/Enqueue ns3::PppHeader (Point-to-Point Protocol: IP (0x0021)) ns3::Ipv4Header (tos 0x0 DSCP Default ECN Not-ECT ttl 62 id 1 protocol 17 offset (bytes) 0 flags [none] length: 1052 10.1.5.2 > 10.1.1.1) ns3::UdpHeader (length: 1032 49153 > 9) Payload (size=1024)
- 0.143728 /NodeList/1/DeviceList/0/$ns3::PointToPointNetDevice/TxQueue/Dequeue ns3::PppHeader (Point-to-Point Protocol: IP (0x0021)) ns3::Ipv4Header (tos 0x0 DSCP Default ECN Not-ECT ttl 62 id 1 protocol 17 offset (bytes) 0 flags [none] length: 1052 10.1.5.2 > 10.1.1.1) ns3::UdpHeader (length: 1032 49153 > 9) Payload (size=1024)
r 0.143728 /NodeList/3/DeviceList/2/$ns3::PointToPointNetDevice/MacRx ns3::PppHeader (Point-to-Point Protocol: IP (0x0021)) ns3::Ipv4Header (tos 0x0 DSCP Default ECN Not-ECT ttl 63 id 1 protocol 17 offset (bytes) 0 flags [none] length: 1052 10.1.13.2 > 10.1.1.1) ns3::UdpHeader (length: 1032 49153 > 9) Payload (size=1024)
+ 0.143728 /NodeList/3/DeviceList/0/$ns3::PointToPointNetDevice/TxQueue/Enqueue ns3::PppHeader (Point-to-Point Protocol: IP (0x0021)) ns3::Ipv4Header (tos 0x0 DSCP Default ECN Not-ECT ttl 62 id 1 protocol 17 offset (bytes) 0 flags [none] length: 1052 10.1.13.2 > 10.1.1.1) ns3::UdpHeader (length: 1032 49153 > 9) Payload (size=1024)
- 0.143728 /NodeList/3/DeviceList/0/$ns3::PointToPointNetDevice/TxQueue/Dequeue ns3::PppHeader (Point-to-Point Protocol: IP (0x0021)) ns3::Ipv4Header (tos 0x0 DSCP Default ECN Not-ECT ttl 62 id 1 protocol 17 offset (bytes) 0 flags [none] length: 1052 10.1.13.2 > 10.1.1.1) ns3::UdpHeader (length: 1032 49153 > 9) Payload (size=1024)
r 0.165592 /NodeList/0/DeviceList/0/$ns3::PointToPointNetDevice/MacRx ns3::PppHeader (Point-to-Point Protocol: IP (0x0021)) ns3::Ipv4Header (tos 0x0 DSCP Default ECN Not-ECT ttl 62 id 1 protocol 17 offset (bytes) 0 flags [none] length: 1052 10.1.5.2 > 10.1.1.1) ns3::UdpHeader (length: 1032 49153 > 9) Payload (size=1024)
+ 0.165592 /NodeList/0/DeviceList/0/$ns3::PointToPointNetDevice/TxQueue/Enqueue ns3::PppHeader (Point-to-Point Protocol: IP (0x0021)) ns3::Ipv4Header (tos 0x0 DSCP Default ECN Not-ECT ttl 64 id 1 protocol 17 offset (bytes) 0 flags [none] length: 1052 10.1.1.1 > 10.1.5.2) ns3::UdpHeader (length: 1032 9 > 49153) Payload (size=1024)
- 0.165592 /NodeList/0/DeviceList/0/$ns3::PointToPointNetDevice/TxQueue/Dequeue ns3::PppHeader (Point-to-Point Protocol: IP (0x0021)) ns3::Ipv4Header (tos 0x0 DSCP Default ECN Not-ECT ttl 64 id 1 protocol 17 offset (bytes) 0 flags [none] length: 1052 10.1.1.1 > 10.1.5.2) ns3::UdpHeader (length: 1032 9 > 49153) Payload (size=1024)
r 0.165592 /NodeList/0/DeviceList/1/$ns3::PointToPointNetDevice/MacRx ns3::PppHeader (Point-to-Point Protocol: IP (0x0021)) ns3::Ipv4Header (tos 0x0 DSCP Default ECN Not-ECT ttl 62 id 1 protocol 17 offset (bytes) 0 flags [none] length: 1052 10.1.13.2 > 10.1.1.1) ns3::UdpHeader (length: 1032 49153 > 9) Payload (size=1024)
+ 0.165592 /NodeList/0/DeviceList/1/$ns3::PointToPointNetDevice/TxQueue/Enqueue ns3::PppHeader (Point-to-Point Protocol: IP (0x0021)) ns3::Ipv4Header (tos 0x0 DSCP Default ECN Not-ECT ttl 64 id 1 protocol 17 offset (bytes) 0 flags [none] length: 1052 10.1.3.1 > 10.1.13.2) ns3::UdpHeader (length: 1032 9 > 49153) Payload (size=1024)
- 0.165592 /NodeList/0/DeviceList/1/$ns3::PointToPointNetDevice/TxQueue/Dequeue ns3::PppHeader (Point-to-Point Protocol: IP (0x0021)) ns3::Ipv4Header (tos 0x0 DSCP Default ECN Not-ECT ttl 64 id 1 protocol 17 offset (bytes) 0 flags [none] length: 1052 10.1.3.1 > 10.1.13.2) ns3::UdpHeader (length: 1032 9 > 49153) Payload (size=1024)
r 0.187456 /NodeList/1/DeviceList/0/$ns3::PointToPointNetDevice/MacRx ns3::PppHeader (Point-to-Point Protocol: IP (0x0021)) ns3::Ipv4Header (tos 0x0 DSCP Default ECN Not-ECT ttl 64 id 1 protocol 17 offset (bytes) 0 flags [none] length: 1052 10.1.1.1 > 10.1.5.2) ns3::UdpHeader (length: 1032 9 > 49153) Payload (size=1024)
+ 0.187456 /NodeList/1/DeviceList/1/$ns3::PointToPointNetDevice/TxQueue/Enqueue ns3::PppHeader (Point-to-Point Protocol: IP (0x0021)) ns3::Ipv4Header (tos 0x0 DSCP Default ECN Not-ECT ttl 63 id 1 protocol 17 offset (bytes) 0 flags [none] length: 1052 10.1.1.1 > 10.1.5.2) ns3::UdpHeader (length: 1032 9 > 49153) Payload (size=1024)
- 0.187456 /NodeList/1/DeviceList/1/$ns3::PointToPointNetDevice/TxQueue/Dequeue ns3::PppHeader (Point-to-Point Protocol: IP (0x0021)) ns3::Ipv4Header (tos 0x0 DSCP Default ECN Not-ECT ttl 63 id 1 protocol 17 offset (bytes) 0 flags [none] length: 1052 10.1.1.1 > 10.1.5.2) ns3::UdpHeader (length: 1032 9 > 49153) Payload (size=1024)
r 0.187456 /NodeList/3/DeviceList/0/$ns3::PointToPointNetDevice/MacRx ns3::PppHeader (Point-to-Point Protocol: IP (0x0021)) ns3::Ipv4Header (tos 0x0 DSCP Default ECN Not-ECT ttl 64 id 1 protocol 17 offset (bytes) 0 flags [none] length: 1052 10.1.3.1 > 10.1.13.2) ns3::UdpHeader (length: 1032 9 > 49153) Payload (size=1024)
+ 0.187456 /NodeList/3/DeviceList/2/$ns3::PointToPointNetDevice/TxQueue/Enqueue ns3::PppHeader (Point-to-Point Protocol: IP (0x0021)) ns3::Ipv4Header (tos 0x0 DSCP Default ECN Not-ECT ttl 63 id 1 protocol 17 offset (bytes) 0 flags [none] length: 1052 10.1.3.1 > 10.1.13.2) ns3::UdpHeader (length: 1032 9 > 49153) Payload (size=1024)
- 0.187456 /NodeList/3/DeviceList/2/$ns3::PointToPointNetDevice/TxQueue/Dequeue ns3::PppHeader (Point-to-Point Protocol: IP (0x0021)) ns3::Ipv4Header (tos 0x0 DSCP Default ECN Not-ECT ttl 63 id 1 protocol 17 offset (bytes) 0 flags [none] length: 1052 10.1.3.1 > 10.1.13.2) ns3::UdpHeader (length: 1032 9 > 49153) Payload (size=1024)
+ 0.2 /NodeList/5/DeviceList/0/$ns3::PointToPointNetDevice/TxQueue/Enqueue ns3::PppHeader (Point-to-Point Protocol: IP (0x0021)) ns3::Ipv4Header (tos 0x0 DSCP Default ECN Not-ECT ttl 64 id 2 protocol 17 offset (bytes) 0 flags [none] length: 1052 10.1.5.2 > 10.1.1.1) ns3::UdpHeader (length: 1032 49153 > 9) Payload (size=1024)
- 0.2 /NodeList/5/DeviceList/0/$ns3::PointToPointNetDevice/TxQueue/Dequeue ns3::PppHeader (Point-to-Point Protocol: IP (0x0021)) ns3::Ipv4Header (tos 0x0 DSCP Default ECN Not-ECT ttl 64 id 2 protocol 17 offset (bytes) 0 flags [none] length: 1052 10.1.5.2 > 10.1.1.1) ns3::UdpHeader (length: 1032 49153 > 9) Payload (size=1024)
+ 0.2 /NodeList/9/DeviceList/0/$ns3::PointToPointNetDevice/TxQueue/Enqueue ns3::PppHeader (Point-to-Point Protocol: IP (0x0021)) ns3::Ipv4Header (tos 0x0 DSCP Default ECN Not-ECT ttl 64 id 2 protocol 17 offset (bytes) 0 flags [none] length: 1052 10.1.13.2 > 10.1.1.1) ns3::UdpHeader (length: 1032 49153 > 9) Payload (size=1024)
- 0.2 /NodeList/9/DeviceList/0/$ns3::PointToPointNetDevice/TxQueue/Dequeue ns3::PppHeader (Point-to-Point Protocol: IP (0x0021)) ns3::Ipv4Header (tos 0x0 DSCP Default ECN Not-ECT ttl 64 id 2 protocol 17 offset (bytes) 0 flags [none] length: 1052 10.1.13.2 > 10.1.1.1) ns3::UdpHeader (length: 1032 49153 > 9) Payload (size=1024)
r 0.20932 /NodeList/2/DeviceList/0/$ns3::PointToPointNetDevice/MacRx ns3::PppHeader (Point-to-Point Protocol: IP (0x0021)) ns3::Ipv4Header (tos 0x0 DSCP Default ECN Not-ECT ttl 63 id 1 protocol 17 offset (bytes) 0 flags [none] length: 1052 10.1.1.1 > 10.1.5.2) ns3::UdpHeader (length: 1032 9 > 49153) Payload (size=1024)
+ 0.20932 /NodeList/2/DeviceList/1/$ns3::PointToPointNetDevice/TxQueue/Enqueue ns3::PppHeader (Point-to-Point Protocol: IP (0x0021)) ns3::Ipv4Header (tos 0x0 DSCP Default ECN Not-ECT ttl 62 id 1 protocol 17 offset (bytes) 0 flags [none] length: 1052 10.1.1.1 > 10.1.5.2) ns3::UdpHeader (length: 1032 9 > 49153) Payload (size=1024)
- 0.20932 /NodeList/2/DeviceList/1/$ns3::PointToPointNetDevice/TxQueue/Dequeue ns3::PppHeader (Point-to-Point Protocol: IP (0x0021)) ns3::Ipv4Header (tos 0x0 DSCP Default ECN Not-ECT ttl 62 id 1 protocol 17 offset (bytes) 0 flags [none] length: 1052 10.1.1.1 > 10.1.5.2) ns3::UdpHeader (length: 1032 9 > 49153) Payload (size=1024)
r 0.20932 /NodeList/6/DeviceList/0/$ns3::PointToPointNetDevice/MacRx ns3::PppHeader (Point-to-Point Protocol: IP (0x0021)) ns3::Ipv4Header (tos 0x0 DSCP Default ECN Not-ECT ttl 63 id 1 protocol 17 offset (bytes) 0 flags [none] length: 1052 10.1.3.1 > 10.1.13.2) ns3::UdpHeader (length: 1032 9 > 49153) Payload (size=1024)
+ 0.20932 /NodeList/6/DeviceList/2/$ns3::PointToPointNetDevice/TxQueue/Enqueue ns3::PppHeader (Point-to-Point Protocol: IP (0x0021)) ns3::Ipv4Header (tos 0x0 DSCP Default ECN Not-ECT ttl 62 id 1 protocol 17 offset (bytes) 0 flags [none] length: 1052 10.1.3.1 > 10.1.13.2) ns3::UdpHeader (length: 1032 9 > 49153) Payload (size=1024)
- 0.20932 /NodeList/6/DeviceList/2/$ns3::PointToPointNetDevice/TxQueue/Dequeue ns3::PppHeader (Point-to-Point Protocol: IP (0x0021)) ns3::Ipv4Header (tos 0x0 DSCP Default ECN Not-ECT ttl 62 id 1 protocol 17 offset (bytes) 0 flags [none] length: 1052 10.1.3.1 > 10.1.13.2) ns3::UdpHeader (length: 1032 9 > 49153) Payload (size=1024)
r 0.221864 /NodeList/2/DeviceList/1/$ns3::PointToPointNetDevice/MacRx ns3::PppHeader (Point-to-Point Protocol: IP (0x0021)) ns3::Ipv4Header (tos 0x0 DSCP Default ECN Not-ECT ttl 64 id 2 protocol 17 offset (bytes) 0 flags [none] length: 1052 10.1.5.2 > 10.1.1.1) ns3::UdpHeader (length: 1032 49153 > 9) Payload (size=1024)
+ 0.221864 /NodeList/2/DeviceList/0/$ns3::PointToPointNetDevice/TxQueue/Enqueue ns3::PppHeader (Point-to-Point Protocol: IP (0x0021)) ns3::Ipv4Header (tos 0x0 DSCP Default ECN Not-ECT ttl 63 id 2 protocol 17 offset (bytes) 0 flags [none] length: 1052 10.1.5.2 > 10.1.1.1) ns3::UdpHeader (length: 1032 49153 > 9) Payload (size=1024)
- 0.221864 /NodeList/2/DeviceList/0/$ns3::PointToPointNetDevice/TxQueue/Dequeue ns3::PppHeader (Point-to-Point Protocol: IP (0x0021)) ns3::Ipv4Header (tos 0x0 DSCP Default ECN Not-ECT ttl 63 id 2 protocol 17 offset (bytes) 0 flags [none] length: 1052 10.1.5.2 > 10.1.1.1) ns3::UdpHeader (length: 1032 49153 > 9) Payload (size=1024)
r 0.221864 /NodeList/6/DeviceList/2/$ns3::PointToPointNetDevice/MacRx ns3::PppHeader (Point-to-Point Protocol: IP (0x0021)) ns3::Ipv4Header (tos 0x0 DSCP Default ECN Not-ECT ttl 64 id 2 protocol 17 offset (bytes) 0 flags [none] length: 1052 10.1.13.2 > 10.1.1.1) ns3::UdpHeader (length: 1032 49153 > 9) Payload (size=1024)
+ 0.221864 /NodeList/6/DeviceList/0/$ns3::PointToPointNetDevice/TxQueue/Enqueue ns3::PppHeader (Point-to-Point Protocol: IP (0x0021)) ns3::Ipv4Header (tos 0x0 DSCP Default ECN Not-ECT ttl 63 id 2 protocol 17 offset (bytes) 0 flags [none] length: 1052 10.1.13.2 > 10.1.1.1) ns3::UdpHeader (length: 1032 49153 > 9) Payload (size=1024)
- 0.221864 /NodeList/6/DeviceList/0/$ns3::PointToPointNetDevice/TxQueue/Dequeue ns3::PppHeader (Point-to-Point Protocol: IP (0x0021)) ns3::Ipv4Header (tos 0x0 DSCP Default ECN Not-ECT ttl 63 id 2 protocol 17 offset (bytes) 0 flags [none] length: 1052 10.1.13.2 > 10.1.1.1) ns3::UdpHeader (length: 1032 49153 > 9) Payload (size=1024)
r 0.231184 /NodeList/5/DeviceList/0/$ns3::PointToPointNetDevice/MacRx ns3::PppHeader (Point-to-Point Protocol: IP (0x0021)) ns3::Ipv4Header (tos 0x0 DSCP Default ECN Not-ECT ttl 62 id 1 protocol 17 offset (bytes) 0 flags [none] length: 1052 10.1.1.1 > 10.1.5.2) ns3::UdpHeader (length: 1032 9 > 49153) Payload (size=1024)
r 0.231184 /NodeList/9/DeviceList/0/$ns3::PointToPointNetDevice/MacRx ns3::PppHeader (Point-to-Point Protocol: IP (0x0021)) ns3::Ipv4Header (tos 0x0 DSCP Default ECN Not-ECT ttl 62 id 1 protocol 17 offset (bytes) 0 flags [none] length: 1052 10.1.3.1 > 10.1.13.2) ns3::UdpHeader (length: 1032 9 > 49153) Payload (size=1024)
r 0.243728 /NodeList/1/DeviceList/1/$ns3::PointToPointNetDevice/MacRx ns3::PppHeader (Point-to-Point Protocol: IP (0x0021)) ns3::Ipv4Header (tos 0x0 DSCP Default ECN Not-ECT ttl 63 id 2 protocol 17 offset (bytes) 0 flags [none] length: 1052 10.1.5.2 > 10.1.1.1) ns3::UdpHeader (length: 1032 49153 > 9) Payload (size=1024)
+ 0.243728 /NodeList/1/DeviceList/0/$ns3::PointToPointNetDevice/TxQueue/Enqueue ns3::PppHeader (Point-to-Point Protocol: IP (0x0021)) ns3::Ipv4Header (tos 0x0 DSCP Default ECN Not-ECT ttl 62 id 2 protocol 17 offset (bytes) 0 flags [none] length: 1052 10.1.5.2 > 10.1.1.1) ns3::UdpHeader (length: 1032 49153 > 9) Payload (size=1024)
- 0.243728 /NodeList/1/DeviceList/0/$ns3::PointToPointNetDevice/TxQueue/Dequeue ns3::PppHeader (Point-to-Point Protocol: IP (0x0021)) ns3::Ipv4Header (tos 0x0 DSCP Default ECN Not-ECT ttl 62 id 2 protocol 17 offset (bytes) 0 flags [none] length: 1052 10.1.5.2 > 10.1.1.1) ns3::UdpHeader (length: 1032 49153 > 9) Payload (size=1024)
r 0.243728 /NodeList/3/DeviceList/2/$ns3::PointToPointNetDevice/MacRx ns3::PppHeader (Point-to-Point Protocol: IP (0x0021)) ns3::Ipv4Header (tos 0x0 DSCP Default ECN Not-ECT ttl 63 id 2 protocol 17 offset (bytes) 0 flags [none] length: 1052 10.1.13.2 > 10.1.1.1) ns3::UdpHeader (length: 1032 49153 > 9) Payload (size=1024)
+ 0.243728 /NodeList/3/DeviceList/0/$ns3::PointToPointNetDevice/TxQueue/Enqueue ns3::PppHeader (Point-to-Point Protocol: IP (0x0021)) ns3::Ipv4Header (tos 0x0 DSCP Default ECN Not-ECT ttl 62 id 2 protocol 17 offset (bytes) 0 flags [none] length: 1052 10.1.13.2 > 10.1.1.1) ns3::UdpHeader (length: 1032 49153 > 9) Payload (size=1024)
- 0.243728 /NodeList/3/DeviceList/0/$ns3::PointToPointNetDevice/TxQueue/Dequeue ns3::PppHeader (Point-to-Point Protocol: IP (0x0021)) ns3::Ipv4Header (tos 0x0 DSCP Default ECN Not-ECT ttl 62 id 2 protocol 17 offset (bytes) 0 flags [none] length: 1052 10.1.13.2 > 10.1.1.1) ns3::UdpHeader (length: 1032 49153 > 9) Payload (size=1024)
r 0.265592 /NodeList/0/DeviceList/0/$ns3::PointToPointNetDevice/MacRx ns3::PppHeader (Point-to-Point Protocol: IP (0x0021)) ns3::Ipv4Header (tos 0x0 DSCP Default ECN Not-ECT ttl 62 id 2 protocol 17 offset (bytes) 0 flags [none] length: 1052 10.1.5.2 > 10.1.1.1) ns3::UdpHeader (length: 1032 49153 > 9) Payload (size=1024)
+ 0.265592 /NodeList/0/DeviceList/0/$ns3::PointToPointNetDevice/TxQueue/Enqueue ns3::PppHeader (Point-to-Point Protocol: IP (0x0021)) ns3::Ipv4Header (tos 0x0 DSCP Default ECN Not-ECT ttl 64 id 2 protocol 17 offset (bytes) 0 flags [none] length: 1052 10.1.1.1 > 10.1.5.2) ns3::UdpHeader (length: 1032 9 > 49153) Payload (size=1024)
- 0.265592 /NodeList/0/DeviceList/0/$ns3::PointToPointNetDevice/TxQueue/Dequeue ns3::PppHeader (Point-to-Point Protocol: IP (0x0021)) ns3::Ipv4Header (tos 0x0 DSCP Default ECN Not-ECT ttl 64 id 2 protocol 17 offset (bytes) 0 flags [none] length: 1052 10.1.1.1 > 10.1.5.2) ns3::UdpHeader (length: 1032 9 > 49153) Payload (size=1024)