+ 0 /NodeList/2/DeviceList/0/$ns3::CsmaNetDevice/TxQueue/Enqueue ns3::EthernetHeader ( length/type=0x86dd, source=00:00:00:00:00:02, destination=33:33:ff:00:00:02) ns3::Ipv6Header ((Version 6 Traffic class 0x0 DSCP Default Flow Label 0x1 Payload Length 32 Next Header 58 Hop Limit 255 ):: > ff02::1:ff00:2) ns3::Icmpv6NS (( type = 135 (NS) code = 0 target = fe80::200:ff:fe00:2 checksum = 6266)) ns3::Icmpv6OptionLinkLayerAddress (( type = 1 length = 1 L2 Address = 00-06-00:00:00:00:00:02)) ns3::EthernetTrailer (fcs=0)
- 0 /NodeList/2/DeviceList/0/$ns3::CsmaNetDevice/TxQueue/Dequeue ns3::EthernetHeader ( length/type=0x86dd, source=00:00:00:00:00:02, destination=33:33:ff:00:00:02) ns3::Ipv6Header ((Version 6 Traffic class 0x0 DSCP Default Flow Label 0x1 Payload Length 32 Next Header 58 Hop Limit 255 ):: > ff02::1:ff00:2) ns3::Icmpv6NS (( type = 135 (NS) code = 0 target = fe80::200:ff:fe00:2 checksum = 6266)) ns3::Icmpv6OptionLinkLayerAddress (( type = 1 length = 1 L2 Address = 00-06-00:00:00:00:00:02)) ns3::EthernetTrailer (fcs=0)
+ 0 /NodeList/2/DeviceList/2/$ns3::CsmaNetDevice/TxQueue/Enqueue ns3::EthernetHeader ( length/type=0x86dd, source=00:00:00:00:00:05, destination=33:33:ff:00:00:05) ns3::Ipv6Header ((Version 6 Traffic class 0x0 DSCP Default Flow Label 0x1 Payload Length 32 Next Header 58 Hop Limit 255 ):: > ff02::1:ff00:5) ns3::Icmpv6NS (( type = 135 (NS) code = 0 target = fe80::200:ff:fe00:5 checksum = 3962)) ns3::Icmpv6OptionLinkLayerAddress (( type = 1 length = 1 L2 Address = 00-06-00:00:00:00:00:05)) ns3::EthernetTrailer (fcs=0)
- 0 /NodeList/2/DeviceList/2/$ns3::CsmaNetDevice/TxQueue/Dequeue ns3::EthernetHeader ( length/type=0x86dd, source=00:00:00:00:00:05, destination=33:33:ff:00:00:05) ns3::Ipv6Header ((Version 6 Traffic class 0x0 DSCP Default Flow Label 0x1 Payload Length 32 Next Header 58 Hop Limit 255 ):: > ff02::1:ff00:5) ns3::Icmpv6NS (( type = 135 (NS) code = 0 target = fe80::200:ff:fe00:5 checksum = 3962)) ns3::Icmpv6OptionLinkLayerAddress (( type = 1 length = 1 L2 Address = 00-06-00:00:00:00:00:05)) ns3::EthernetTrailer (fcs=0)
+ 0 /NodeList/4/DeviceList/1/$ns3::CsmaNetDevice/TxQueue/Enqueue ns3::EthernetHeader ( length/type=0x86dd, source=00:00:00:00:00:08, destination=33:33:ff:00:00:08) ns3::Ipv6Header ((Version 6 Traffic class 0x0 DSCP Default Flow Label 0x1 Payload Length 32 Next Header 58 Hop Limit 255 ):: > ff02::1:ff00:8) ns3::Icmpv6NS (( type = 135 (NS) code = 0 target = fe80::200:ff:fe00:8 checksum = 1658)) ns3::Icmpv6OptionLinkLayerAddress (( type = 1 length = 1 L2 Address = 00-06-00:00:00:00:00:08)) ns3::EthernetTrailer (fcs=0)
- 0 /NodeList/4/DeviceList/1/$ns3::CsmaNetDevice/TxQueue/Dequeue ns3::EthernetHeader ( length/type=0x86dd, source=00:00:00:00:00:08, destination=33:33:ff:00:00:08) ns3::Ipv6Header ((Version 6 Traffic class 0x0 DSCP Default Flow Label 0x1 Payload Length 32 Next Header 58 Hop Limit 255 ):: > ff02::1:ff00:8) ns3::Icmpv6NS (( type = 135 (NS) code = 0 target = fe80::200:ff:fe00:8 checksum = 1658)) ns3::Icmpv6OptionLinkLayerAddress (( type = 1 length = 1 L2 Address = 00-06-00:00:00:00:00:08)) ns3::EthernetTrailer (fcs=0)
+ 0 /NodeList/3/DeviceList/2/$ns3::CsmaNetDevice/TxQueue/Enqueue ns3::EthernetHeader ( length/type=0x86dd, source=00:00:00:00:00:0b, destination=33:33:ff:00:00:0b) ns3::Ipv6Header ((Version 6 Traffic class 0x0 DSCP Default Flow Label 0x1 Payload Length 32 Next Header 58 Hop Limit 255 ):: > ff02::1:ff00:b) ns3::Icmpv6NS (( type = 135 (NS) code = 0 target = fe80::200:ff:fe00:b checksum = 64889)) ns3::Icmpv6OptionLinkLayerAddress (( type = 1 length = 1 L2 Address = 00-06-00:00:00:00:00:0b)) ns3::EthernetTrailer (fcs=0)
- 0 /NodeList/3/DeviceList/2/$ns3::CsmaNetDevice/TxQueue/Dequeue ns3::EthernetHeader ( length/type=0x86dd, source=00:00:00:00:00:0b, destination=33:33:ff:00:00:0b) ns3::Ipv6Header ((Version 6 Traffic class 0x0 DSCP Default Flow Label 0x1 Payload Length 32 Next Header 58 Hop Limit 255 ):: > ff02::1:ff00:b) ns3::Icmpv6NS (( type = 135 (NS) code = 0 target = fe80::200:ff:fe00:b checksum = 64889)) ns3::Icmpv6OptionLinkLayerAddress (( type = 1 length = 1 L2 Address = 00-06-00:00:00:00:00:0b)) ns3::EthernetTrailer (fcs=0)
+ 0 /NodeList/1/DeviceList/0/$ns3::CsmaNetDevice/TxQueue/Enqueue ns3::EthernetHeader ( length/type=0x86dd, source=00:00:00:00:00:0e, destination=33:33:ff:00:00:0e) ns3::Ipv6Header ((Version 6 Traffic class 0x0 DSCP Default Flow Label 0x1 Payload Length 32 Next Header 58 Hop Limit 255 ):: > ff02::1:ff00:e) ns3::Icmpv6NS (( type = 135 (NS) code = 0 target = fe80::200:ff:fe00:e checksum = 62585)) ns3::Icmpv6OptionLinkLayerAddress (( type = 1 length = 1 L2 Address = 00-06-00:00:00:00:00:0e)) ns3::EthernetTrailer (fcs=0)
- 0 /NodeList/1/DeviceList/0/$ns3::CsmaNetDevice/TxQueue/Dequeue ns3::EthernetHeader ( length/type=0x86dd, source=00:00:00:00:00:0e, destination=33:33:ff:00:00:0e) ns3::Ipv6Header ((Version 6 Traffic class 0x0 DSCP Default Flow Label 0x1 Payload Length 32 Next Header 58 Hop Limit 255 ):: > ff02::1:ff00:e) ns3::Icmpv6NS (( type = 135 (NS) code = 0 target = fe80::200:ff:fe00:e checksum = 62585)) ns3::Icmpv6OptionLinkLayerAddress (( type = 1 length = 1 L2 Address = 00-06-00:00:00:00:00:0e)) ns3::EthernetTrailer (fcs=0)
+ 0.001 /NodeList/3/DeviceList/0/$ns3::CsmaNetDevice/TxQueue/Enqueue ns3::EthernetHeader ( length/type=0x86dd, source=00:00:00:00:00:04, destination=33:33:ff:00:00:04) ns3::Ipv6Header ((Version 6 Traffic class 0x0 DSCP Default Flow Label 0x1 Payload Length 32 Next Header 58 Hop Limit 255 ):: > ff02::1:ff00:4) ns3::Icmpv6NS (( type = 135 (NS) code = 0 target = fe80::200:ff:fe00:4 checksum = 4730)) ns3::Icmpv6OptionLinkLayerAddress (( type = 1 length = 1 L2 Address = 00-06-00:00:00:00:00:04)) ns3::EthernetTrailer (fcs=0)
- 0.001 /NodeList/3/DeviceList/0/$ns3::CsmaNetDevice/TxQueue/Dequeue ns3::EthernetHeader ( length/type=0x86dd, source=00:00:00:00:00:04, destination=33:33:ff:00:00:04) ns3::Ipv6Header ((Version 6 Traffic class 0x0 DSCP Default Flow Label 0x1 Payload Length 32 Next Header 58 Hop Limit 255 ):: > ff02::1:ff00:4) ns3::Icmpv6NS (( type = 135 (NS) code = 0 target = fe80::200:ff:fe00:4 checksum = 4730)) ns3::Icmpv6OptionLinkLayerAddress (( type = 1 length = 1 L2 Address = 00-06-00:00:00:00:00:04)) ns3::EthernetTrailer (fcs=0)
+ 0.001 /NodeList/5/DeviceList/0/$ns3::CsmaNetDevice/TxQueue/Enqueue ns3::EthernetHeader ( length/type=0x86dd, source=00:00:00:00:00:0a, destination=33:33:ff:00:00:0a) ns3::Ipv6Header ((Version 6 Traffic class 0x0 DSCP Default Flow Label 0x1 Payload Length 32 Next Header 58 Hop Limit 255 ):: > ff02::1:ff00:a) ns3::Icmpv6NS (( type = 135 (NS) code = 0 target = fe80::200:ff:fe00:a checksum = 122)) ns3::Icmpv6OptionLinkLayerAddress (( type = 1 length = 1 L2 Address = 00-06-00:00:00:00:00:0a)) ns3::EthernetTrailer (fcs=0)
- 0.001 /NodeList/5/DeviceList/0/$ns3::CsmaNetDevice/TxQueue/Dequeue ns3::EthernetHeader ( length/type=0x86dd, source=00:00:00:00:00:0a, destination=33:33:ff:00:00:0a) ns3::Ipv6Header ((Version 6 Traffic class 0x0 DSCP Default Flow Label 0x1 Payload Length 32 Next Header 58 Hop Limit 255 ):: > ff02::1:ff00:a) ns3::Icmpv6NS (( type = 135 (NS) code = 0 target = fe80::200:ff:fe00:a checksum = 122)) ns3::Icmpv6OptionLinkLayerAddress (( type = 1 length = 1 L2 Address = 00-06-00:00:00:00:00:0a)) ns3::EthernetTrailer (fcs=0)
+ 0.001 /NodeList/5/DeviceList/2/$ns3::CsmaNetDevice/TxQueue/Enqueue ns3::EthernetHeader ( length/type=0x86dd, source=00:00:00:00:00:0d, destination=33:33:ff:00:00:0d) ns3::Ipv6Header ((Version 6 Traffic class 0x0 DSCP Default Flow Label 0x1 Payload Length 32 Next Header 58 Hop Limit 255 ):: > ff02::1:ff00:d) ns3::Icmpv6NS (( type = 135 (NS) code = 0 target = 2001:2::200:ff:fe00:d checksum = 30040)) ns3::Icmpv6OptionLinkLayerAddress (( type = 1 length = 1 L2 Address = 00-06-00:00:00:00:00:0d)) ns3::EthernetTrailer (fcs=0)
- 0.001 /NodeList/5/DeviceList/2/$ns3::CsmaNetDevice/TxQueue/Dequeue ns3::EthernetHeader ( length/type=0x86dd, source=00:00:00:00:00:0d, destination=33:33:ff:00:00:0d) ns3::Ipv6Header ((Version 6 Traffic class 0x0 DSCP Default Flow Label 0x1 Payload Length 32 Next Header 58 Hop Limit 255 ):: > ff02::1:ff00:d) ns3::Icmpv6NS (( type = 135 (NS) code = 0 target = 2001:2::200:ff:fe00:d checksum = 30040)) ns3::Icmpv6OptionLinkLayerAddress (( type = 1 length = 1 L2 Address = 00-06-00:00:00:00:00:0d)) ns3::EthernetTrailer (fcs=0)
+ 0.002 /NodeList/2/DeviceList/1/$ns3::CsmaNetDevice/TxQueue/Enqueue ns3::EthernetHeader ( length/type=0x86dd, source=00:00:00:00:00:03, destination=33:33:ff:00:00:03) ns3::Ipv6Header ((Version 6 Traffic class 0x0 DSCP Default Flow Label 0x1 Payload Length 32 Next Header 58 Hop Limit 255 ):: > ff02::1:ff00:3) ns3::Icmpv6NS (( type = 135 (NS) code = 0 target = fe80::200:ff:fe00:3 checksum = 5498)) ns3::Icmpv6OptionLinkLayerAddress (( type = 1 length = 1 L2 Address = 00-06-00:00:00:00:00:03)) ns3::EthernetTrailer (fcs=0)
- 0.002 /NodeList/2/DeviceList/1/$ns3::CsmaNetDevice/TxQueue/Dequeue ns3::EthernetHeader ( length/type=0x86dd, source=00:00:00:00:00:03, destination=33:33:ff:00:00:03) ns3::Ipv6Header ((Version 6 Traffic class 0x0 DSCP Default Flow Label 0x1 Payload Length 32 Next Header 58 Hop Limit 255 ):: > ff02::1:ff00:3) ns3::Icmpv6NS (( type = 135 (NS) code = 0 target = fe80::200:ff:fe00:3 checksum = 5498)) ns3::Icmpv6OptionLinkLayerAddress (( type = 1 length = 1 L2 Address = 00-06-00:00:00:00:00:03)) ns3::EthernetTrailer (fcs=0)
+ 0.002 /NodeList/5/DeviceList/0/$ns3::CsmaNetDevice/TxQueue/Enqueue ns3::EthernetHeader ( length/type=0x86dd, source=00:00:00:00:00:0a, destination=33:33:ff:00:00:0a) ns3::Ipv6Header ((Version 6 Traffic class 0x0 DSCP Default Flow Label 0x1 Payload Length 32 Next Header 58 Hop Limit 255 ):: > ff02::1:ff00:a) ns3::Icmpv6NS (( type = 135 (NS) code = 0 target = 2001:0:4:0:200:ff:fe00:a checksum = 31832)) ns3::Icmpv6OptionLinkLayerAddress (( type = 1 length = 1 L2 Address = 00-06-00:00:00:00:00:0a)) ns3::EthernetTrailer (fcs=0)
- 0.002 /NodeList/5/DeviceList/0/$ns3::CsmaNetDevice/TxQueue/Dequeue ns3::EthernetHeader ( length/type=0x86dd, source=00:00:00:00:00:0a, destination=33:33:ff:00:00:0a) ns3::Ipv6Header ((Version 6 Traffic class 0x0 DSCP Default Flow Label 0x1 Payload Length 32 Next Header 58 Hop Limit 255 ):: > ff02::1:ff00:a) ns3::Icmpv6NS (( type = 135 (NS) code = 0 target = 2001:0:4:0:200:ff:fe00:a checksum = 31832)) ns3::Icmpv6OptionLinkLayerAddress (( type = 1 length = 1 L2 Address = 00-06-00:00:00:00:00:0a)) ns3::EthernetTrailer (fcs=0)
+ 0.002 /NodeList/3/DeviceList/2/$ns3::CsmaNetDevice/TxQueue/Enqueue ns3::EthernetHeader ( length/type=0x86dd, source=00:00:00:00:00:0b, destination=33:33:ff:00:00:0b) ns3::Ipv6Header ((Version 6 Traffic class 0x0 DSCP Default Flow Label 0x1 Payload Length 32 Next Header 58 Hop Limit 255 ):: > ff02::1:ff00:b) ns3::Icmpv6NS (( type = 135 (NS) code = 0 target = 2001:0:5:0:200:ff:fe00:b checksum = 30808)) ns3::Icmpv6OptionLinkLayerAddress (( type = 1 length = 1 L2 Address = 00-06-00:00:00:00:00:0b)) ns3::EthernetTrailer (fcs=0)
- 0.002 /NodeList/3/DeviceList/2/$ns3::CsmaNetDevice/TxQueue/Dequeue ns3::EthernetHeader ( length/type=0x86dd, source=00:00:00:00:00:0b, destination=33:33:ff:00:00:0b) ns3::Ipv6Header ((Version 6 Traffic class 0x0 DSCP Default Flow Label 0x1 Payload Length 32 Next Header 58 Hop Limit 255 ):: > ff02::1:ff00:b) ns3::Icmpv6NS (( type = 135 (NS) code = 0 target = 2001:0:5:0:200:ff:fe00:b checksum = 30808)) ns3::Icmpv6OptionLinkLayerAddress (( type = 1 length = 1 L2 Address = 00-06-00:00:00:00:00:0b)) ns3::EthernetTrailer (fcs=0)
+ 0.002 /NodeList/5/DeviceList/1/$ns3::CsmaNetDevice/TxQueue/Enqueue ns3::EthernetHeader ( length/type=0x86dd, source=00:00:00:00:00:0c, destination=33:33:ff:00:00:0c) ns3::Ipv6Header ((Version 6 Traffic class 0x0 DSCP Default Flow Label 0x1 Payload Length 32 Next Header 58 Hop Limit 255 ):: > ff02::1:ff00:c) ns3::Icmpv6NS (( type = 135 (NS) code = 0 target = 2001:0:5:0:200:ff:fe00:c checksum = 30040)) ns3::Icmpv6OptionLinkLayerAddress (( type = 1 length = 1 L2 Address = 00-06-00:00:00:00:00:0c)) ns3::EthernetTrailer (fcs=0)
- 0.002 /NodeList/5/DeviceList/1/$ns3::CsmaNetDevice/TxQueue/Dequeue ns3::EthernetHeader ( length/type=0x86dd, source=00:00:00:00:00:0c, destination=33:33:ff:00:00:0c) ns3::Ipv6Header ((Version 6 Traffic class 0x0 DSCP Default Flow Label 0x1 Payload Length 32 Next Header 58 Hop Limit 255 ):: > ff02::1:ff00:c) ns3::Icmpv6NS (( type = 135 (NS) code = 0 target = 2001:0:5:0:200:ff:fe00:c checksum = 30040)) ns3::Icmpv6OptionLinkLayerAddress (( type = 1 length = 1 L2 Address = 00-06-00:00:00:00:00:0c)) ns3::EthernetTrailer (fcs=0)
+ 0.002 /NodeList/5/DeviceList/2/$ns3::CsmaNetDevice/TxQueue/Enqueue ns3::EthernetHeader ( length/type=0x86dd, source=00:00:00:00:00:0d, destination=33:33:ff:00:00:0d) ns3::Ipv6Header ((Version 6 Traffic class 0x0 DSCP Default Flow Label 0x1 Payload Length 32 Next Header 58 Hop Limit 255 ):: > ff02::1:ff00:d) ns3::Icmpv6NS (( type = 135 (NS) code = 0 target = fe80::200:ff:fe00:d checksum = 63353)) ns3::Icmpv6OptionLinkLayerAddress (( type = 1 length = 1 L2 Address = 00-06-00:00:00:00:00:0d)) ns3::EthernetTrailer (fcs=0)
r 0.002144 /NodeList/0/DeviceList/0/$ns3::CsmaNetDevice/MacRx ns3::EthernetHeader ( length/type=0x86dd, source=00:00:00:00:00:02, destination=33:33:ff:00:00:02) ns3::Ipv6Header ((Version 6 Traffic class 0x0 DSCP Default Flow Label 0x1 Payload Length 32 Next Header 58 Hop Limit 255 ):: > ff02::1:ff00:2) ns3::Icmpv6NS (( type = 135 (NS) code = 0 target = fe80::200:ff:fe00:2 checksum = 6266)) ns3::Icmpv6OptionLinkLayerAddress (( type = 1 length = 1 L2 Address = 00-06-00:00:00:00:00:02)) ns3::EthernetTrailer (fcs=0)
r 0.002144 /NodeList/4/DeviceList/0/$ns3::CsmaNetDevice/MacRx ns3::EthernetHeader ( length/type=0x86dd, source=00:00:00:00:00:05, destination=33:33:ff:00:00:05) ns3::Ipv6Header ((Version 6 Traffic class 0x0 DSCP Default Flow Label 0x1 Payload Length 32 Next Header 58 Hop Limit 255 ):: > ff02::1:ff00:5) ns3::Icmpv6NS (( type = 135 (NS) code = 0 target = fe80::200:ff:fe00:5 checksum = 3962)) ns3::Icmpv6OptionLinkLayerAddress (( type = 1 length = 1 L2 Address = 00-06-00:00:00:00:00:05)) ns3::EthernetTrailer (fcs=0)
r 0.002144 /NodeList/3/DeviceList/1/$ns3::CsmaNetDevice/MacRx ns3::EthernetHeader ( length/type=0x86dd, source=00:00:00:00:00:08, destination=33:33:ff:00:00:08) ns3::Ipv6Header ((Version 6 Traffic class 0x0 DSCP Default Flow Label 0x1 Payload Length 32 Next Header 58 Hop Limit 255 ):: > ff02::1:ff00:8) ns3::Icmpv6NS (( type = 135 (NS) code = 0 target = fe80::200:ff:fe00:8 checksum = 1658)) ns3::Icmpv6OptionLinkLayerAddress (( type = 1 length = 1 L2 Address = 00-06-00:00:00:00:00:08)) ns3::EthernetTrailer (fcs=0)
r 0.002144 /NodeList/5/DeviceList/1/$ns3::CsmaNetDevice/MacRx ns3::EthernetHeader ( length/type=0x86dd, source=00:00:00:00:00:0b, destination=33:33:ff:00:00:0b) ns3::Ipv6Header ((Version 6 Traffic class 0x0 DSCP Default Flow Label 0x1 Payload Length 32 Next Header 58 Hop Limit 255 ):: > ff02::1:ff00:b) ns3::Icmpv6NS (( type = 135 (NS) code = 0 target = fe80::200:ff:fe00:b checksum = 64889)) ns3::Icmpv6OptionLinkLayerAddress (( type = 1 length = 1 L2 Address = 00-06-00:00:00:00:00:0b)) ns3::EthernetTrailer (fcs=0)
r 0.002144 /NodeList/5/DeviceList/2/$ns3::CsmaNetDevice/MacRx ns3::EthernetHeader ( length/type=0x86dd, source=00:00:00:00:00:0e, destination=33:33:ff:00:00:0e) ns3::Ipv6Header ((Version 6 Traffic class 0x0 DSCP Default Flow Label 0x1 Payload Length 32 Next Header 58 Hop Limit 255 ):: > ff02::1:ff00:e) ns3::Icmpv6NS (( type = 135 (NS) code = 0 target = fe80::200:ff:fe00:e checksum = 62585)) ns3::Icmpv6OptionLinkLayerAddress (( type = 1 length = 1 L2 Address = 00-06-00:00:00:00:00:0e)) ns3::EthernetTrailer (fcs=0)
- 0.0023352 /NodeList/5/DeviceList/2/$ns3::CsmaNetDevice/TxQueue/Dequeue ns3::EthernetHeader ( length/type=0x86dd, source=00:00:00:00:00:0d, destination=33:33:ff:00:00:0d) ns3::Ipv6Header ((Version 6 Traffic class 0x0 DSCP Default Flow Label 0x1 Payload Length 32 Next Header 58 Hop Limit 255 ):: > ff02::1:ff00:d) ns3::Icmpv6NS (( type = 135 (NS) code = 0 target = fe80::200:ff:fe00:d checksum = 63353)) ns3::Icmpv6OptionLinkLayerAddress (( type = 1 length = 1 L2 Address = 00-06-00:00:00:00:00:0d)) ns3::EthernetTrailer (fcs=0)
+ 0.003 /NodeList/4/DeviceList/1/$ns3::CsmaNetDevice/TxQueue/Enqueue ns3::EthernetHeader ( length/type=0x86dd, source=00:00:00:00:00:08, destination=33:33:ff:00:00:08) ns3::Ipv6Header ((Version 6 Traffic class 0x0 DSCP Default Flow Label 0x1 Payload Length 32 Next Header 58 Hop Limit 255 ):: > ff02::1:ff00:8) ns3::Icmpv6NS (( type = 135 (NS) code = 0 target = 2001:0:3:0:200:ff:fe00:8 checksum = 33624)) ns3::Icmpv6OptionLinkLayerAddress (( type = 1 length = 1 L2 Address = 00-06-00:00:00:00:00:08)) ns3::EthernetTrailer (fcs=0)
- 0.003 /NodeList/4/DeviceList/1/$ns3::CsmaNetDevice/TxQueue/Dequeue ns3::EthernetHeader ( length/type=0x86dd, source=00:00:00:00:00:08, destination=33:33:ff:00:00:08) ns3::Ipv6Header ((Version 6 Traffic class 0x0 DSCP Default Flow Label 0x1 Payload Length 32 Next Header 58 Hop Limit 255 ):: > ff02::1:ff00:8) ns3::Icmpv6NS (( type = 135 (NS) code = 0 target = 2001:0:3:0:200:ff:fe00:8 checksum = 33624)) ns3::Icmpv6OptionLinkLayerAddress (( type = 1 length = 1 L2 Address = 00-06-00:00:00:00:00:08)) ns3::EthernetTrailer (fcs=0)
r 0.003144 /NodeList/2/DeviceList/1/$ns3::CsmaNetDevice/MacRx ns3::EthernetHeader ( length/type=0x86dd, source=00:00:00:00:00:04, destination=33:33:ff:00:00:04) ns3::Ipv6Header ((Version 6 Traffic class 0x0 DSCP Default Flow Label 0x1 Payload Length 32 Next Header 58 Hop Limit 255 ):: > ff02::1:ff00:4) ns3::Icmpv6NS (( type = 135 (NS) code = 0 target = fe80::200:ff:fe00:4 checksum = 4730)) ns3::Icmpv6OptionLinkLayerAddress (( type = 1 length = 1 L2 Address = 00-06-00:00:00:00:00:04)) ns3::EthernetTrailer (fcs=0)
r 0.003144 /NodeList/4/DeviceList/2/$ns3::CsmaNetDevice/MacRx ns3::EthernetHeader ( length/type=0x86dd, source=00:00:00:00:00:0a, destination=33:33:ff:00:00:0a) ns3::Ipv6Header ((Version 6 Traffic class 0x0 DSCP Default Flow Label 0x1 Payload Length 32 Next Header 58 Hop Limit 255 ):: > ff02::1:ff00:a) ns3::Icmpv6NS (( type = 135 (NS) code = 0 target = fe80::200:ff:fe00:a checksum = 122)) ns3::Icmpv6OptionLinkLayerAddress (( type = 1 length = 1 L2 Address = 00-06-00:00:00:00:00:0a)) ns3::EthernetTrailer (fcs=0)
+ 0.004 /NodeList/2/DeviceList/0/$ns3::CsmaNetDevice/TxQueue/Enqueue ns3::EthernetHeader ( length/type=0x86dd, source=00:00:00:00:00:02, destination=33:33:ff:00:00:02) ns3::Ipv6Header ((Version 6 Traffic class 0x0 DSCP Default Flow Label 0x1 Payload Length 32 Next Header 58 Hop Limit 255 ):: > ff02::1:ff00:2) ns3::Icmpv6NS (( type = 135 (NS) code = 0 target = 2001:1::200:ff:fe00:2 checksum = 38744)) ns3::Icmpv6OptionLinkLayerAddress (( type = 1 length = 1 L2 Address = 00-06-00:00:00:00:00:02)) ns3::EthernetTrailer (fcs=0)
- 0.004 /NodeList/2/DeviceList/0/$ns3::CsmaNetDevice/TxQueue/Dequeue ns3::EthernetHeader ( length/type=0x86dd, source=00:00:00:00:00:02, destination=33:33:ff:00:00:02) ns3::Ipv6Header ((Version 6 Traffic class 0x0 DSCP Default Flow Label 0x1 Payload Length 32 Next Header 58 Hop Limit 255 ):: > ff02::1:ff00:2) ns3::Icmpv6NS (( type = 135 (NS) code = 0 target = 2001:1::200:ff:fe00:2 checksum = 38744)) ns3::Icmpv6OptionLinkLayerAddress (( type = 1 length = 1 L2 Address = 00-06-00:00:00:00:00:02)) ns3::EthernetTrailer (fcs=0)
+ 0.004 /NodeList/3/DeviceList/0/$ns3::CsmaNetDevice/TxQueue/Enqueue ns3::EthernetHeader ( length/type=0x86dd, source=00:00:00:00:00:04, destination=33:33:ff:00:00:04) ns3::Ipv6Header ((Version 6 Traffic class 0x0 DSCP Default Flow Label 0x1 Payload Length 32 Next Header 58 Hop Limit 255 ):: > ff02::1:ff00:4) ns3::Icmpv6NS (( type = 135 (NS) code = 0 target = 2001:0:1:0:200:ff:fe00:4 checksum = 37208)) ns3::Icmpv6OptionLinkLayerAddress (( type = 1 length = 1 L2 Address = 00-06-00:00:00:00:00:04)) ns3::EthernetTrailer (fcs=0)
- 0.004 /NodeList/3/DeviceList/0/$ns3::CsmaNetDevice/TxQueue/Dequeue ns3::EthernetHeader ( length/type=0x86dd, source=00:00:00:00:00:04, destination=33:33:ff:00:00:04) ns3::Ipv6Header ((Version 6 Traffic class 0x0 DSCP Default Flow Label 0x1 Payload Length 32 Next Header 58 Hop Limit 255 ):: > ff02::1:ff00:4) ns3::Icmpv6NS (( type = 135 (NS) code = 0 target = 2001:0:1:0:200:ff:fe00:4 checksum = 37208)) ns3::Icmpv6OptionLinkLayerAddress (( type = 1 length = 1 L2 Address = 00-06-00:00:00:00:00:04)) ns3::EthernetTrailer (fcs=0)
+ 0.004 /NodeList/4/DeviceList/0/$ns3::CsmaNetDevice/TxQueue/Enqueue ns3::EthernetHeader ( length/type=0x86dd, source=00:00:00:00:00:06, destination=33:33:ff:00:00:06) ns3::Ipv6Header ((Version 6 Traffic class 0x0 DSCP Default Flow Label 0x1 Payload Length 32 Next Header 58 Hop Limit 255 ):: > ff02::1:ff00:6) ns3::Icmpv6NS (( type = 135 (NS) code = 0 target = fe80::200:ff:fe00:6 checksum = 3194)) ns3::Icmpv6OptionLinkLayerAddress (( type = 1 length = 1 L2 Address = 00-06-00:00:00:00:00:06)) ns3::EthernetTrailer (fcs=0)
- 0.004 /NodeList/4/DeviceList/0/$ns3::CsmaNetDevice/TxQueue/Dequeue ns3::EthernetHeader ( length/type=0x86dd, source=00:00:00:00:00:06, destination=33:33:ff:00:00:06) ns3::Ipv6Header ((Version 6 Traffic class 0x0 DSCP Default Flow Label 0x1 Payload Length 32 Next Header 58 Hop Limit 255 ):: > ff02::1:ff00:6) ns3::Icmpv6NS (( type = 135 (NS) code = 0 target = fe80::200:ff:fe00:6 checksum = 3194)) ns3::Icmpv6OptionLinkLayerAddress (( type = 1 length = 1 L2 Address = 00-06-00:00:00:00:00:06)) ns3::EthernetTrailer (fcs=0)
r 0.004316 /NodeList/1/DeviceList/0/$ns3::CsmaNetDevice/MacRx ns3::EthernetHeader ( length/type=0x86dd, source=00:00:00:00:00:0d, destination=33:33:ff:00:00:0d) ns3::Ipv6Header ((Version 6 Traffic class 0x0 DSCP Default Flow Label 0x1 Payload Length 32 Next Header 58 Hop Limit 255 ):: > ff02::1:ff00:d) ns3::Icmpv6NS (( type = 135 (NS) code = 0 target = 2001:2::200:ff:fe00:d checksum = 30040)) ns3::Icmpv6OptionLinkLayerAddress (( type = 1 length = 1 L2 Address = 00-06-00:00:00:00:00:0d)) ns3::EthernetTrailer (fcs=0)
r 0.00432 /NodeList/5/DeviceList/1/$ns3::CsmaNetDevice/MacRx ns3::EthernetHeader ( length/type=0x86dd, source=00:00:00:00:00:0b, destination=33:33:ff:00:00:0b) ns3::Ipv6Header ((Version 6 Traffic class 0x0 DSCP Default Flow Label 0x1 Payload Length 32 Next Header 58 Hop Limit 255 ):: > ff02::1:ff00:b) ns3::Icmpv6NS (( type = 135 (NS) code = 0 target = 2001:0:5:0:200:ff:fe00:b checksum = 30808)) ns3::Icmpv6OptionLinkLayerAddress (( type = 1 length = 1 L2 Address = 00-06-00:00:00:00:00:0b)) ns3::EthernetTrailer (fcs=0)
+ 0.005 /NodeList/0/DeviceList/0/$ns3::CsmaNetDevice/TxQueue/Enqueue ns3::EthernetHeader ( length/type=0x86dd, source=00:00:00:00:00:01, destination=33:33:ff:00:00:01) ns3::Ipv6Header ((Version 6 Traffic class 0x0 DSCP Default Flow Label 0x1 Payload Length 32 Next Header 58 Hop Limit 255 ):: > ff02::1:ff00:1) ns3::Icmpv6NS (( type = 135 (NS) code = 0 target = fe80::200:ff:fe00:1 checksum = 7034)) ns3::Icmpv6OptionLinkLayerAddress (( type = 1 length = 1 L2 Address = 00-06-00:00:00:00:00:01)) ns3::EthernetTrailer (fcs=0)
- 0.005 /NodeList/0/DeviceList/0/$ns3::CsmaNetDevice/TxQueue/Dequeue ns3::EthernetHeader ( length/type=0x86dd, source=00:00:00:00:00:01, destination=33:33:ff:00:00:01) ns3::Ipv6Header ((Version 6 Traffic class 0x0 DSCP Default Flow Label 0x1 Payload Length 32 Next Header 58 Hop Limit 255 ):: > ff02::1:ff00:1) ns3::Icmpv6NS (( type = 135 (NS) code = 0 target = fe80::200:ff:fe00:1 checksum = 7034)) ns3::Icmpv6OptionLinkLayerAddress (( type = 1 length = 1 L2 Address = 00-06-00:00:00:00:00:01)) ns3::EthernetTrailer (fcs=0)
+ 0.005 /NodeList/0/DeviceList/0/$ns3::CsmaNetDevice/TxQueue/Enqueue ns3::EthernetHeader ( length/type=0x86dd, source=00:00:00:00:00:01, destination=33:33:ff:00:00:01) ns3::Ipv6Header ((Version 6 Traffic class 0x0 DSCP Default Flow Label 0x1 Payload Length 32 Next Header 58 Hop Limit 255 ):: > ff02::1:ff00:1) ns3::Icmpv6NS (( type = 135 (NS) code = 0 target = 2001:1::200:ff:fe00:1 checksum = 39512)) ns3::Icmpv6OptionLinkLayerAddress (( type = 1 length = 1 L2 Address = 00-06-00:00:00:00:00:01)) ns3::EthernetTrailer (fcs=0)
+ 0.005 /NodeList/3/DeviceList/1/$ns3::CsmaNetDevice/TxQueue/Enqueue ns3::EthernetHeader ( length/type=0x86dd, source=00:00:00:00:00:07, destination=33:33:ff:00:00:07) ns3::Ipv6Header ((Version 6 Traffic class 0x0 DSCP Default Flow Label 0x1 Payload Length 32 Next Header 58 Hop Limit 255 ):: > ff02::1:ff00:7) ns3::Icmpv6NS (( type = 135 (NS) code = 0 target = fe80::200:ff:fe00:7 checksum = 2426)) ns3::Icmpv6OptionLinkLayerAddress (( type = 1 length = 1 L2 Address = 00-06-00:00:00:00:00:07)) ns3::EthernetTrailer (fcs=0)
- 0.005 /NodeList/3/DeviceList/1/$ns3::CsmaNetDevice/TxQueue/Dequeue ns3::EthernetHeader ( length/type=0x86dd, source=00:00:00:00:00:07, destination=33:33:ff:00:00:07) ns3::Ipv6Header ((Version 6 Traffic class 0x0 DSCP Default Flow Label 0x1 Payload Length 32 Next Header 58 Hop Limit 255 ):: > ff02::1:ff00:7) ns3::Icmpv6NS (( type = 135 (NS) code = 0 target = fe80::200:ff:fe00:7 checksum = 2426)) ns3::Icmpv6OptionLinkLayerAddress (( type = 1 length = 1 L2 Address = 00-06-00:00:00:00:00:07)) ns3::EthernetTrailer (fcs=0)
+ 0.005 /NodeList/3/DeviceList/1/$ns3::CsmaNetDevice/TxQueue/Enqueue ns3::EthernetHeader ( length/type=0x86dd, source=00:00:00:00:00:07, destination=33:33:ff:00:00:07) ns3::Ipv6Header ((Version 6 Traffic class 0x0 DSCP Default Flow Label 0x1 Payload Length 32 Next Header 58 Hop Limit 255 ):: > ff02::1:ff00:7) ns3::Icmpv6NS (( type = 135 (NS) code = 0 target = 2001:0:3:0:200:ff:fe00:7 checksum = 34392)) ns3::Icmpv6OptionLinkLayerAddress (( type = 1 length = 1 L2 Address = 00-06-00:00:00:00:00:07)) ns3::EthernetTrailer (fcs=0)
r 0.005144 /NodeList/3/DeviceList/1/$ns3::CsmaNetDevice/MacRx ns3::EthernetHeader ( length/type=0x86dd, source=00:00:00:00:00:08, destination=33:33:ff:00:00:08) ns3::Ipv6Header ((Version 6 Traffic class 0x0 DSCP Default Flow Label 0x1 Payload Length 32 Next Header 58 Hop Limit 255 ):: > ff02::1:ff00:8) ns3::Icmpv6NS (( type = 135 (NS) code = 0 target = 2001:0:3:0:200:ff:fe00:8 checksum = 33624)) ns3::Icmpv6OptionLinkLayerAddress (( type = 1 length = 1 L2 Address = 00-06-00:00:00:00:00:08)) ns3::EthernetTrailer (fcs=0)
r 0.005373 /NodeList/3/DeviceList/0/$ns3::CsmaNetDevice/MacRx ns3::EthernetHeader ( length/type=0x86dd, source=00:00:00:00:00:03, destination=33:33:ff:00:00:03) ns3::Ipv6Header ((Version 6 Traffic class 0x0 DSCP Default Flow Label 0x1 Payload Length 32 Next Header 58 Hop Limit 255 ):: > ff02::1:ff00:3) ns3::Icmpv6NS (( type = 135 (NS) code = 0 target = fe80::200:ff:fe00:3 checksum = 5498)) ns3::Icmpv6OptionLinkLayerAddress (( type = 1 length = 1 L2 Address = 00-06-00:00:00:00:00:03)) ns3::EthernetTrailer (fcs=0)
- 0.0053992 /NodeList/3/DeviceList/1/$ns3::CsmaNetDevice/TxQueue/Dequeue ns3::EthernetHeader ( length/type=0x86dd, source=00:00:00:00:00:07, destination=33:33:ff:00:00:07) ns3::Ipv6Header ((Version 6 Traffic class 0x0 DSCP Default Flow Label 0x1 Payload Length 32 Next Header 58 Hop Limit 255 ):: > ff02::1:ff00:7) ns3::Icmpv6NS (( type = 135 (NS) code = 0 target = 2001:0:3:0:200:ff:fe00:7 checksum = 34392)) ns3::Icmpv6OptionLinkLayerAddress (( type = 1 length = 1 L2 Address = 00-06-00:00:00:00:00:07)) ns3::EthernetTrailer (fcs=0)
r 0.005405 /NodeList/4/DeviceList/2/$ns3::CsmaNetDevice/MacRx ns3::EthernetHeader ( length/type=0x86dd, source=00:00:00:00:00:0a, destination=33:33:ff:00:00:0a) ns3::Ipv6Header ((Version 6 Traffic class 0x0 DSCP Default Flow Label 0x1 Payload Length 32 Next Header 58 Hop Limit 255 ):: > ff02::1:ff00:a) ns3::Icmpv6NS (( type = 135 (NS) code = 0 target = 2001:0:4:0:200:ff:fe00:a checksum = 31832)) ns3::Icmpv6OptionLinkLayerAddress (( type = 1 length = 1 L2 Address = 00-06-00:00:00:00:00:0a)) ns3::EthernetTrailer (fcs=0)
r 0.006144 /NodeList/0/DeviceList/0/$ns3::CsmaNetDevice/MacRx ns3::EthernetHeader ( length/type=0x86dd, source=00:00:00:00:00:02, destination=33:33:ff:00:00:02) ns3::Ipv6Header ((Version 6 Traffic class 0x0 DSCP Default Flow Label 0x1 Payload Length 32 Next Header 58 Hop Limit 255 ):: > ff02::1:ff00:2) ns3::Icmpv6NS (( type = 135 (NS) code = 0 target = 2001:1::200:ff:fe00:2 checksum = 38744)) ns3::Icmpv6OptionLinkLayerAddress (( type = 1 length = 1 L2 Address = 00-06-00:00:00:00:00:02)) ns3::EthernetTrailer (fcs=0)
r 0.006144 /NodeList/2/DeviceList/2/$ns3::CsmaNetDevice/MacRx ns3::EthernetHeader ( length/type=0x86dd, source=00:00:00:00:00:06, destination=33:33:ff:00:00:06) ns3::Ipv6Header ((Version 6 Traffic class 0x0 DSCP Default Flow Label 0x1 Payload Length 32 Next Header 58 Hop Limit 255 ):: > ff02::1:ff00:6) ns3::Icmpv6NS (( type = 135 (NS) code = 0 target = fe80::200:ff:fe00:6 checksum = 3194)) ns3::Icmpv6OptionLinkLayerAddress (( type = 1 length = 1 L2 Address = 00-06-00:00:00:00:00:06)) ns3::EthernetTrailer (fcs=0)
- 0.0065052 /NodeList/0/DeviceList/0/$ns3::CsmaNetDevice/TxQueue/Dequeue ns3::EthernetHeader ( length/type=0x86dd, source=00:00:00:00:00:01, destination=33:33:ff:00:00:01) ns3::Ipv6Header ((Version 6 Traffic class 0x0 DSCP Default Flow Label 0x1 Payload Length 32 Next Header 58 Hop Limit 255 ):: > ff02::1:ff00:1) ns3::Icmpv6NS (( type = 135 (NS) code = 0 target = 2001:1::200:ff:fe00:1 checksum = 39512)) ns3::Icmpv6OptionLinkLayerAddress (( type = 1 length = 1 L2 Address = 00-06-00:00:00:00:00:01)) ns3::EthernetTrailer (fcs=0)
r 0.0066122 /NodeList/1/DeviceList/0/$ns3::CsmaNetDevice/MacRx ns3::EthernetHeader ( length/type=0x86dd, source=00:00:00:00:00:0d, destination=33:33:ff:00:00:0d) ns3::Ipv6Header ((Version 6 Traffic class 0x0 DSCP Default Flow Label 0x1 Payload Length 32 Next Header 58 Hop Limit 255 ):: > ff02::1:ff00:d) ns3::Icmpv6NS (( type = 135 (NS) code = 0 target = fe80::200:ff:fe00:d checksum = 63353)) ns3::Icmpv6OptionLinkLayerAddress (( type = 1 length = 1 L2 Address = 00-06-00:00:00:00:00:0d)) ns3::EthernetTrailer (fcs=0)